# t (s)	mx ()	my ()	mz ()	B_extx (T)	B_exty (T)	B_extz (T)
0	-0.00013645343	0.00016639437	0.00012306812	0	0	0
0	0.08715182	9.4756055e-05	0.00012309864	0.001	0	0
0	0.17313738	6.9726426e-05	0.00012318333	0.002	0	0
0	0.25634718	6.7417204e-05	0.00012332658	0.002999999	0	0
0	0.33548805	7.7101344e-05	0.00012353309	0.004	0	0
0	0.4093358	9.3990304e-05	0.0001237972	0.0049999994	0	0
0	0.47698557	0.0001168631	0.00012413292	0.005999998	0	0
0	0.5377371	0.00014745319	0.00012454348	0.0069999998	0	0
0	0.59125096	0.00018964065	0.00012502492	0.008	0	0
0	0.6374222	0.00024257542	0.00012556846	0.009000002	0	0
0	0.676767	0.0003105012	0.00012616967	0.009999999	0	0
0	0.7099395	0.00038882616	0.00012681364	0.0110000055	0	0
0	0.73787403	0.0004729719	0.00012748214	0.011999996	0	0
0	0.76147765	0.0005558278	0.00012817797	0.013000003	0	0
0	0.7816428	0.00063180376	0.00012886843	0.0139999995	0	0
0	0.7970284	0.00063994137	0.00012940964	0.014999993	0	0
0	0.9479521	3.442671e-05	0	0.016	0	0
0	0.94995856	3.3748373e-05	0	0.016999999	0	0
0	0.9518334	3.290495e-05	0	0.018000005	0	0
0	0.9535898	3.2099073e-05	0	0.018999996	0	0
0	0.9552384	3.1337302e-05	0	0.019999998	0	0
0	0.9567891	3.060328e-05	0	0.021000009	0	0
0	0.9582504	2.9906601e-05	0	0.022000011	0	0
0	0.95963025	2.9238334e-05	0	0.023	0	0
0	0.9609354	2.8597831e-05	0	0.023999993	0	0
0	0.9621716	2.7984846e-05	0	0.024999993	0	0
0	0.96334445	2.739871e-05	0	0.026000006	0	0
0	0.9644587	2.6834503e-05	0	0.027000008	0	0
0	0.96551883	2.6294372e-05	0	0.027999999	0	0
0	0.96652865	2.5777626e-05	0	0.028999986	0	0
0	0.96749175	2.5278314e-05	0	0.029999986	0	0
0	0.9684117	2.4801484e-05	0	0.031000005	0	0
0	0.9692911	2.4342327e-05	0	0.032	0	0
0	0.9701327	2.3900066e-05	0	0.032999996	0	0
0	0.97093904	2.347715e-05	0	0.033999998	0	0
0	0.9717127	2.3068169e-05	0	0.035000008	0	0
0	0.9724555	2.2677457e-05	0	0.03600001	0	0
0	0.97316945	2.2303e-05	0	0.036999997	0	0
0	0.97385645	2.194412e-05	0	0.03799999	0	0
0	0.97451836	2.1601198e-05	0	0.039	0	0
0	0.97515696	2.127629e-05	0	0.039999995	0	0
0	0.9757739	2.0970365e-05	0	0.041000005	0	0
0	0.9763708	2.0688596e-05	0	0.042000018	0	0
0	0.97694993	2.0438863e-05	0	0.04299999	0	0
0	0.977514	2.0243177e-05	0	0.044000022	0	0
0	0.97806793	2.0176012e-05	0	0.04499999	0	0
0	0.9786283	2.0755564e-05	0	0.046	0	0
0	0.9791769	2.1489293e-05	0	0.047000017	0	0
0	0.9796488	2.1823857e-05	0	0.047999986	0	0
0	0.98010993	2.2244458e-05	0	0.049000017	0	0
0	0.9805616	2.2790111e-05	0	0.049999986	0	0
0	0.9810053	2.3461624e-05	0	0.051	0	0
0	0.9814364	2.4202884e-05	0	0.052000012	0	0
0	0.98287994	2.862902e-05	0	0.052999977	0	0
0	0.98318565	2.8211434e-05	0	0.054000016	0	0
0	0.9834838	2.7797778e-05	0	0.05499998	0	0
0	0.9837748	2.7377268e-05	0	0.055999998	0	0
0	0.98405874	2.6967693e-05	0	0.057000015	0	0
0	0.98433614	2.6560645e-05	0	0.057999972	0	0
0	0.98460704	2.616206e-05	0	0.05900001	0	0
0	0.98487175	2.5770925e-05	0	0.059999973	0	0
0	0.9851304	2.5381763e-05	0	0.060999993	0	0
0	0.9853833	2.5005626e-05	0	0.06200001	0	0
0	0.9856305	2.4636156e-05	0	0.062999986	0	0
0	0.98587227	2.427472e-05	0	0.064	0	0
0	0.98610884	2.3921115e-05	0	0.06500003	0	0
0	0.98634017	2.3578456e-05	0	0.06599999	0	0
0	0.9865668	2.3241926e-05	0	0.067000024	0	0
0	0.9867885	2.2914379e-05	0	0.067999996	0	0
0	0.98700553	2.259422e-05	0	0.069	0	0
0	0.98721814	2.228372e-05	0	0.070000015	0	0
0	0.9874264	2.1978836e-05	0	0.071	0	0
0	0.98763055	2.1683962e-05	0	0.07200002	0	0
0	0.9878304	2.1392998e-05	0	0.07299998	0	0
0	0.98802644	2.1112886e-05	0	0.07399999	0	0
0	0.9882186	2.0836498e-05	0	0.075000025	0	0
0	0.9880266	2.1027568e-05	0	0.07399999	0	0
0	0.9878307	2.124321e-05	0	0.07299998	0	0
0	0.98763084	2.147201e-05	0	0.07200002	0	0
0	0.9874267	2.1711317e-05	0	0.071	0	0
0	0.98721844	2.1962524e-05	0	0.070000015	0	0
0	0.98700583	2.2223774e-05	0	0.069	0	0
0	0.98678875	2.2495738e-05	0	0.067999996	0	0
0	0.986567	2.278055e-05	0	0.067000024	0	0
0	0.9863405	2.3074426e-05	0	0.06599999	0	0
0	0.9861091	2.3379576e-05	0	0.06500003	0	0
0	0.9858725	2.3695487e-05	0	0.064	0	0
0	0.98563075	2.4023093e-05	0	0.062999986	0	0
0	0.9853835	2.4360648e-05	0	0.06200001	0	0
0	0.98513067	2.471418e-05	0	0.060999993	0	0
0	0.98487204	2.5076512e-05	0	0.059999973	0	0
0	0.98460734	2.5451654e-05	0	0.05900001	0	0
0	0.98433644	2.5841744e-05	0	0.057999972	0	0
0	0.98405904	2.6244616e-05	0	0.057000015	0	0
0	0.983775	2.6660475e-05	0	0.055999998	0	0
0	0.983484	2.7091675e-05	0	0.05499998	0	0
0	0.98318577	2.7540093e-05	0	0.054000016	0	0
0	0.98288023	2.8003027e-05	0	0.052999977	0	0
0	0.9825668	2.8483248e-05	0	0.052000012	0	0
0	0.9822454	2.8981114e-05	0	0.051	0	0
0	0.9819157	2.9504808e-05	0	0.049999986	0	0
0	0.9815773	3.0045925e-05	0	0.049000017	0	0
0	0.98122984	3.0606898e-05	0	0.047999986	0	0
0	0.9808729	3.1191048e-05	0	0.047000017	0	0
0	0.9805063	3.1804946e-05	0	0.046	0	0
0	0.98012966	3.2441007e-05	0	0.04499999	0	0
0	0.9797423	3.3104745e-05	0	0.044000022	0	0
0	0.97934383	3.380222e-05	0	0.04299999	0	0
0	0.9789338	3.4533092e-05	0	0.042000018	0	0
0	0.9785118	3.5302728e-05	0	0.041000005	0	0
0	0.9780772	3.611279e-05	0	0.039999995	0	0
0	0.9776295	3.6953927e-05	0	0.039	0	0
0	0.9771679	3.784477e-05	0	0.03799999	0	0
0	0.9766921	3.8782964e-05	0	0.036999997	0	0
0	0.97620094	3.9776904e-05	0	0.03600001	0	0
0	0.975694	4.0837684e-05	0	0.035000008	0	0
0	0.9751707	4.1957166e-05	0	0.033999998	0	0
0	0.97462976	4.3149477e-05	0	0.032999996	0	0
0	0.9740705	4.442067e-05	0	0.032	0	0
0	0.9734919	4.5788503e-05	0	0.031000005	0	0
0	0.9728931	4.7257072e-05	0	0.029999986	0	0
0	0.9722729	4.882885e-05	0	0.028999986	0	0
0	0.9716301	5.053564e-05	0	0.027999999	0	0
0	0.97096336	5.2389798e-05	0	0.027000008	0	0
0	0.97027147	5.4398053e-05	0	0.026000006	0	0
0	0.9695528	5.6585563e-05	0	0.024999993	0	0
0	0.9688059	5.9024595e-05	0	0.023999993	0	0
0	0.9680288	6.174466e-05	0	0.023	0	0
0	0.9672201	6.474562e-05	0	0.022000011	0	0
0	0.96637726	6.810933e-05	0	0.021000009	0	0
0	0.9654983	7.189007e-05	0	0.019999998	0	0
0	0.96458066	7.6218734e-05	0	0.018999996	0	0
0	0.96362185	8.119428e-05	0	0.018000005	0	0
0	0.96261865	8.7042456e-05	0	0.016999999	0	0
0	0.9615685	9.371735e-05	0	0.016	0	0
0	0.9604669	0.00010176196	0	0.014999993	0	0
0	0.95931077	0.00011147295	0	0.0139999995	0	0
0	0.9580953	0.0001233843	0	0.013000003	0	0
0	0.95681584	0.00013833666	0	0.011999996	0	0
0	0.955467	0.0001576126	0	0.0110000055	0	0
0	0.95404273	0.00018255162	0	0.009999999	0	0
0	0.9525361	0.00021578444	0	0.009000002	0	0
0	0.95093983	0.00026054957	0	0.008	0	0
0	0.9492448	0.00032244233	0	0.0069999998	0	0
0	0.9474416	0.00040897628	0	0.005999998	0	0
0	0.9455195	0.00052807434	0	0.0049999994	0	0
0	0.9434647	0.00069585297	0	0.004	0	0
0	0.94126403	0.0009286433	0	0.002999999	0	0
0	0.9389007	0.0012468552	0	0.002	0	0
0	0.93635553	0.001673295	0	0.001	0	0
0	0.93360776	0.0022207424	0	0	0	0
0	0.93063587	0.0028681145	0	-0.001	0	0
0	0.83750606	0.17538184	0	-0.002	0	0
0	0.813756	0.1885987	0	-0.002999999	0	0
0	0.7796909	0.20631187	0	-0.004	0	0
0	0.72373164	0.2366347	0	-0.0049999994	0	0
0	0.54629487	0.263725	0	-0.005999998	0	0
0	0.47461703	0.29187006	0	-0.0069999998	0	0
0	0.3868335	0.34795752	0	-0.008	0	0
0	0.22568382	0.47653836	0	-0.009000002	0	0
0	-0.62470645	0.42047894	0	-0.009999999	0	0
0	-0.6565135	0.40506622	0	-0.0110000055	0	0
0	-0.684032	0.39082158	0	-0.011999996	0	0
0	-0.7083802	0.37755162	0	-0.013000003	0	0
0	-0.72951066	0.36589643	0	-0.0139999995	0	0
0	-0.945881	0.09257836	0	-0.014999993	0	0
0	-0.9480277	0.090210915	0	-0.016	0	0
0	-0.95002925	0.0879564	0	-0.016999999	0	0
0	-0.95189947	0.08580881	0	-0.018000005	0	0
0	-0.9536514	0.08375853	0	-0.018999996	0	0
0	-0.95529616	0.081798784	0	-0.019999998	0	0
0	-0.95684314	0.0799243	0	-0.021000009	0	0
0	-0.9583015	0.07812714	0	-0.022000011	0	0
0	-0.9596783	0.07640357	0	-0.023	0	0
0	-0.96098053	0.07474811	0	-0.023999993	0	0
0	-0.9622142	0.07315656	0	-0.024999993	0	0
0	-0.96338487	0.07162452	0	-0.026000006	0	0
0	-0.96449685	0.07014884	0	-0.027000008	0	0
0	-0.96555483	0.06872636	0	-0.027999999	0	0
0	-0.96656287	0.06735269	0	-0.028999986	0	0
0	-0.96752435	0.06602566	0	-0.029999986	0	0
0	-0.96844244	0.06474289	0	-0.031000005	0	0
0	-0.96932036	0.063500844	0	-0.032	0	0
0	-0.97016054	0.062298007	0	-0.032999996	0	0
0	-0.97096574	0.061131403	0	-0.033999998	0	0
0	-0.971738	0.05999903	0	-0.035000008	0	0
0	-0.9724797	0.058898557	0	-0.03600001	0	0
0	-0.9731925	0.05782815	0	-0.036999997	0	0
0	-0.9738786	0.056785	0	-0.03799999	0	0
0	-0.97453964	0.055767395	0	-0.039	0	0
0	-0.9751774	0.054772522	0	-0.039999995	0	0
0	-0.9757936	0.053797394	0	-0.041000005	0	0
0	-0.97638994	0.052838404	0	-0.042000018	0	0
0	-0.9769685	0.051890634	0	-0.04299999	0	0
0	-0.9775324	0.05094437	0	-0.044000022	0	0
0	-0.9780865	0.049980354	0	-0.04499999	0	0
0	-0.97865015	0.04891571	0	-0.046	0	0
0	-0.9791897	0.047873624	0	-0.047000017	0	0
0	-0.9796645	0.04703407	0	-0.047999986	0	0
0	-0.980127	0.04617632	0	-0.049000017	0	0
0	-0.98058355	0.045277216	0	-0.049999986	0	0
0	-0.9810222	0.04437665	0	-0.051	0	0
0	-0.9825666	0.000110023364	0	-0.052000012	0	0
0	-0.98288	7.942383e-05	0	-0.052999977	0	0
0	-0.9831855	6.226887e-05	0	-0.054000016	0	0
0	-0.98348373	4.90665e-05	0	-0.05499998	0	0
0	-0.9837747	3.7710357e-05	0	-0.055999998	0	0
0	-0.9840588	2.8641276e-05	0	-0.057000015	0	0
0	-0.9843361	2.079063e-05	0	-0.057999972	0	0
0	-0.98460704	1.4295373e-05	0	-0.05900001	0	0
0	-0.9848717	8.884786e-06	0	-0.059999973	0	0
0	-0.98513037	4.287276e-06	0	-0.060999993	0	0
0	-0.98538333	2.632258e-07	0	-0.06200001	0	0
0	-0.98563045	-3.0853876e-06	0	-0.062999986	0	0
0	-0.98587227	-5.8275605e-06	0	-0.064	0	0
0	-0.98610884	-8.130601e-06	0	-0.06500003	0	0
0	-0.9863403	-1.008616e-05	0	-0.06599999	0	0
0	-0.9865668	-1.1731525e-05	0	-0.067000024	0	0
0	-0.9867885	-1.3068994e-05	0	-0.067999996	0	0
0	-0.9870056	-1.4227968e-05	0	-0.069	0	0
0	-0.9872182	-1.5168457e-05	0	-0.070000015	0	0
0	-0.98742646	-1.5918264e-05	0	-0.071	0	0
0	-0.9876305	-1.6518852e-05	0	-0.07200002	0	0
0	-0.9878304	-1.698768e-05	0	-0.07299998	0	0
0	-0.9880264	-1.7361688e-05	0	-0.07399999	0	0
0	-0.98821855	-1.765355e-05	0	-0.075000025	0	0
0	-0.9880267	-1.8266286e-05	0	-0.07399999	0	0
0	-0.9878307	-1.8834531e-05	0	-0.07299998	0	0
0	-0.9876307	-1.937594e-05	0	-0.07200002	0	0
0	-0.9874267	-1.988246e-05	0	-0.071	0	0
0	-0.98721844	-2.0366648e-05	0	-0.070000015	0	0
0	-0.98700583	-2.0829008e-05	0	-0.069	0	0
0	-0.98678875	-2.1277212e-05	0	-0.067999996	0	0
0	-0.986567	-2.1709247e-05	0	-0.067000024	0	0
0	-0.9863404	-2.2167356e-05	0	-0.06599999	0	0
0	-0.98610896	-2.2621738e-05	0	-0.06500003	0	0
0	-0.9858726	-2.3027404e-05	0	-0.064	0	0
0	-0.9856307	-2.3457413e-05	0	-0.062999986	0	0
0	-0.9853835	-2.3868097e-05	0	-0.06200001	0	0
0	-0.98513067	-2.4280242e-05	0	-0.060999993	0	0
0	-0.98487204	-2.4696266e-05	0	-0.059999973	0	0
0	-0.98460734	-2.5118843e-05	0	-0.05900001	0	0
0	-0.98433644	-2.5547482e-05	0	-0.057999972	0	0
0	-0.98405904	-2.5986243e-05	0	-0.057000015	0	0
0	-0.983775	-2.6429407e-05	0	-0.055999998	0	0
0	-0.983484	-2.68906e-05	0	-0.05499998	0	0
0	-0.98318577	-2.7359105e-05	0	-0.054000016	0	0
0	-0.9828802	-2.7843698e-05	0	-0.052999977	0	0
0	-0.98256683	-2.8343857e-05	0	-0.052000012	0	0
0	-0.9822454	-2.8857608e-05	0	-0.051	0	0
0	-0.9819157	-2.9392166e-05	0	-0.049999986	0	0
0	-0.9815773	-2.9943656e-05	0	-0.049000017	0	0
0	-0.9812298	-3.0516105e-05	0	-0.047999986	0	0
0	-0.9808729	-3.1109532e-05	0	-0.047000017	0	0
0	-0.9805063	-3.1730706e-05	0	-0.046	0	0
0	-0.98012966	-3.238077e-05	0	-0.04499999	0	0
0	-0.97974217	-3.3052427e-05	0	-0.044000022	0	0
0	-0.9793437	-3.375655e-05	0	-0.04299999	0	0
0	-0.9789338	-3.4490833e-05	0	-0.042000018	0	0
0	-0.97851175	-3.5265653e-05	0	-0.041000005	0	0
0	-0.9780772	-3.606945e-05	0	-0.039999995	0	0
0	-0.9776295	-3.6918518e-05	0	-0.039	0	0
0	-0.9771679	-3.7816055e-05	0	-0.03799999	0	0
0	-0.9766921	-3.8754744e-05	0	-0.036999997	0	0
0	-0.97620094	-3.9751714e-05	0	-0.03600001	0	0
0	-0.975694	-4.0817325e-05	0	-0.035000008	0	0
0	-0.9751707	-4.193843e-05	0	-0.033999998	0	0
0	-0.9746298	-4.3131302e-05	0	-0.032999996	0	0
0	-0.9740705	-4.44022e-05	0	-0.032	0	0
0	-0.97349197	-4.576903e-05	0	-0.031000005	0	0
0	-0.9728931	-4.7242087e-05	0	-0.029999986	0	0
0	-0.97227293	-4.8812828e-05	0	-0.028999986	0	0
0	-0.9716301	-5.0517017e-05	0	-0.027999999	0	0
0	-0.97096336	-5.236758e-05	0	-0.027000008	0	0
0	-0.97027147	-5.4384607e-05	0	-0.026000006	0	0
0	-0.9695528	-5.6600147e-05	0	-0.024999993	0	0
0	-0.9688059	-5.9020753e-05	0	-0.023999993	0	0
0	-0.96802896	-6.170549e-05	0	-0.023	0	0
0	-0.9672201	-6.4695516e-05	0	-0.022000011	0	0
0	-0.96637726	-6.805621e-05	0	-0.021000009	0	0
0	-0.9654982	-7.188892e-05	0	-0.019999998	0	0
0	-0.96458066	-7.620223e-05	0	-0.018999996	0	0
0	-0.9636218	-8.1191276e-05	0	-0.018000005	0	0
0	-0.96261877	-8.698282e-05	0	-0.016999999	0	0
0	-0.96156836	-9.372245e-05	0	-0.016	0	0
0	-0.96046686	-0.00010185892	0	-0.014999993	0	0
0	-0.9593106	-0.00011171092	0	-0.0139999995	0	0
0	-0.95809525	-0.00012371737	0	-0.013000003	0	0
0	-0.9568159	-0.00013863848	0	-0.011999996	0	0
0	-0.95546687	-0.00015793773	0	-0.0110000055	0	0
0	-0.95404273	-0.00018269237	0	-0.009999999	0	0
0	-0.9525361	-0.00021593536	0	-0.009000002	0	0
0	-0.9509398	-0.00026096287	0	-0.008	0	0
0	-0.94924504	-0.00032194017	0	-0.0069999998	0	0
0	-0.94744176	-0.00040752665	0	-0.005999998	0	0
0	-0.9455192	-0.00052726193	0	-0.0049999994	0	0
0	-0.943465	-0.0006936314	0	-0.004	0	0
0	-0.94126403	-0.0009253804	0	-0.002999999	0	0
0	-0.93890077	-0.0012424721	0	-0.002	0	0
0	-0.9363562	-0.0016658719	0	-0.001	0	0
0	-0.9336084	-0.0022096941	0	0	0	0
0	-0.93063086	-0.0028653648	0	0.001	0	0
0	-0.8375007	-0.17539021	0	0.002	0	0
0	-0.8137571	-0.18859717	0	0.002999999	0	0
0	-0.77963984	-0.20637745	0	0.004	0	0
0	-0.72379196	-0.23658586	0	0.0049999994	0	0
0	-0.5462373	-0.26398575	0	0.005999998	0	0
0	-0.4746474	-0.29176658	0	0.0069999998	0	0
0	-0.3859431	-0.34980184	0	0.008	0	0
0	-0.22456096	-0.47766912	0	0.009000002	0	0
0	0.62470734	-0.4204782	0	0.009999999	0	0
0	0.65650654	-0.4050683	0	0.0110000055	0	0
0	0.6840284	-0.39082295	0	0.011999996	0	0
0	0.7083776	-0.37755224	0	0.013000003	0	0
0	0.7295102	-0.36589655	0	0.0139999995	0	0
0	0.94588083	-0.09257883	0	0.014999993	0	0
0	0.9480282	-0.09020942	0	0.016	0	0
0	0.95002973	-0.08795517	0	0.016999999	0	0
0	0.95189977	-0.08580808	0	0.018000005	0	0
0	0.9536514	-0.08375837	0	0.018999996	0	0
0	0.95529616	-0.08179875	0	0.019999998	0	0
0	0.95684326	-0.079923905	0	0.021000009	0	0
0	0.9583015	-0.07812703	0	0.022000011	0	0
0	0.9596783	-0.076403596	0	0.023	0	0
0	0.9609804	-0.07474844	0	0.023999993	0	0
0	0.9622143	-0.073156424	0	0.024999993	0	0
0	0.96338457	-0.07162494	0	0.026000006	0	0
0	0.9644969	-0.070148766	0	0.027000008	0	0
0	0.96555495	-0.06872587	0	0.027999999	0	0
0	0.96656275	-0.06735311	0	0.028999986	0	0
0	0.96752435	-0.06602589	0	0.029999986	0	0
0	0.9684425	-0.06474273	0	0.031000005	0	0
0	0.9693203	-0.06350118	0	0.032	0	0
0	0.97016054	-0.062297992	0	0.032999996	0	0
0	0.97096574	-0.06113136	0	0.033999998	0	0
0	0.971738	-0.059999015	0	0.035000008	0	0
0	0.97247964	-0.058898702	0	0.03600001	0	0
0	0.9731926	-0.057827957	0	0.036999997	0	0
0	0.97387874	-0.0567848	0	0.03799999	0	0
0	0.97453964	-0.055767342	0	0.039	0	0
0	0.9751774	-0.054772504	0	0.039999995	0	0
0	0.9757936	-0.05379737	0	0.041000005	0	0
0	0.9763898	-0.052838642	0	0.042000018	0	0
0	0.9769686	-0.051890522	0	0.04299999	0	0
0	0.9775324	-0.05094435	0	0.044000022	0	0
0	0.97808665	-0.04997994	0	0.04499999	0	0
0	0.9786499	-0.048916414	0	0.046	0	0
0	0.97918963	-0.047873788	0	0.047000017	0	0
0	0.9796632	-0.047039315	0	0.047999986	0	0
0	0.98012763	-0.046174765	0	0.049000017	0	0
0	0.98058	-0.045290973	0	0.049999986	0	0
0	0.98101354	-0.044412404	0	0.051	0	0
0	0.9825666	-9.9260964e-05	0	0.052000012	0	0
0	0.98287994	-7.630594e-05	0	0.052999977	0	0
0	0.9831855	-5.9780214e-05	0	0.054000016	0	0
0	0.9834838	-4.6851957e-05	0	0.05499998	0	0
0	0.98377466	-3.5884314e-05	0	0.055999998	0	0
0	0.9840588	-2.6977114e-05	0	0.057000015	0	0
0	0.98433614	-1.9285788e-05	0	0.057999972	0	0
0	0.984607	-1.3186344e-05	0	0.05900001	0	0
0	0.98487175	-7.98048e-06	0	0.059999973	0	0
0	0.9851303	-3.4559416e-06	0	0.060999993	0	0
0	0.98538333	3.6584674e-07	0	0.06200001	0	0
0	0.98563045	3.4542072e-06	0	0.062999986	0	0
0	0.9858723	6.199437e-06	0	0.064	0	0
0	0.98610884	8.473053e-06	0	0.06500003	0	0
0	0.9863403	1.04042065e-05	0	0.06599999	0	0
0	0.9865668	1.2020873e-05	0	0.067000024	0	0
0	0.9867885	1.3325282e-05	0	0.067999996	0	0
0	0.98700553	1.4429706e-05	0	0.069	0	0
0	0.9872182	1.5328591e-05	0	0.070000015	0	0
0	0.98742634	1.6072068e-05	0	0.071	0	0
0	0.98763055	1.6654822e-05	0	0.07200002	0	0
0	0.9878304	1.710629e-05	0	0.07299998	0	0
0	0.98802644	1.7476015e-05	0	0.07399999	0	0
