# t (s)	mx ()	my ()	mz ()
0	-8.544922e-09	5.645752e-09	0.027469978
5.094891004354656e-12	-0.00010314331	0.006506991	0.027469913
1.0161506801119625e-11	-0.00025665466	0.012668723	0.027469695
1.5047275668759553e-11	-0.0004755188	0.018266266	0.027469106
2.0091495042982918e-11	-0.00079561706	0.023677377	0.02746743
2.5134135420556496e-11	-0.0012306665	0.028730115	0.027463002
3.015958097837849e-11	-0.0017973853	0.03345653	0.027454372
3.5025069503645296e-11	-0.002488936	0.037797995	0.027440855
4.005129368745721e-11	-0.0033646428	0.042110145	0.027420312
4.507332976677593e-11	-0.0044138418	0.04631387	0.027392397
5.009653642409176e-11	-0.0056434874	0.050470274	0.02735683
5.5120483660864583e-11	-0.007053783	0.054617997	0.027313413
6.014492335212826e-11	-0.008639364	0.058785863	0.027262349
6.500770376308695e-11	-0.01033115	0.06285843	0.027206564
7.003281712844672e-11	-0.012228623	0.06711966	0.02714417
7.5056198912283e-11	-0.014261847	0.07143807	0.02707956
8.007666437706232e-11	-0.016414985	0.07581164	0.027015686
8.509711973655962e-11	-0.01867559	0.0802384	0.026955124
9.011766272200216e-11	-0.021032574	0.08471374	0.026899634
9.513813590767797e-11	-0.023477033	0.089231044	0.026849946
1.0015852538811781e-10	-0.026001636	0.09377872	0.026805932
1.0501691272583878e-10	-0.028514639	0.09819176	0.026768042
1.1003700799985693e-10	-0.031176459	0.102741115	0.02673263
1.1505666493926359e-10	-0.03389648	0.107250586	0.026699673
1.200761352679522e-10	-0.036666363	0.11168726	0.026667766
1.2509527560720788e-10	-0.039477717	0.11601551	0.026635692
1.3011412633216859e-10	-0.04232355	0.12020104	0.026602412
1.3513271868941004e-10	-0.045199394	0.1242149	0.026566792
1.401510154884805e-10	-0.04810419	0.12803721	0.026527315
1.45007332713976e-10	-0.050945748	0.13154517	0.026483567
1.500253719062653e-10	-0.0539203	0.134974	0.026430381
1.550432884653472e-10	-0.056944195	0.13821475	0.026366765
1.6006122573653009e-10	-0.060030375	0.14128704	0.02629075
1.6507906868497768e-10	-0.06319232	0.14421618	0.026201256
1.7009696797257562e-10	-0.06644259	0.14703046	0.026098518
1.751149306702048e-10	-0.0697909	0.1497577	0.025984293
1.801328998227482e-10	-0.07324298	0.15242295	0.025861796
1.8515093611205606e-10	-0.07679993	0.15504648	0.025735388
1.9000710637042075e-10	-0.08033859	0.15755907	0.025614008
1.9502527995526097e-10	-0.08408744	0.16013554	0.025494399
2.0004361945950097e-10	-0.08791918	0.16269228	0.025384957
2.0506193700013634e-10	-0.091820605	0.16522357	0.025288753
2.1008038843329727e-10	-0.09577801	0.16771893	0.025207216
2.1509888610268145e-10	-0.09977784	0.17016464	0.025139973
2.2011754261540128e-10	-0.10380794	0.1725458	0.025084952
2.251362072315396e-10	-0.107857645	0.17484738	0.025038721
2.301548225799614e-10	-0.11191832	0.17705555	0.024997
2.3501151234398445e-10	-0.11585212	0.17909229	0.024956677
2.4003034016166114e-10	-0.1199166	0.18108389	0.024911024
2.450490937183484e-10	-0.12397689	0.18295285	0.024858078
2.5006779754930747e-10	-0.12803084	0.18469338	0.02479577
2.550865254203983e-10	-0.13207768	0.18630138	0.024723377
2.6010535957748e-10	-0.13611774	0.18777464	0.024641404
2.651241588157836e-10	-0.14015238	0.18911254	0.024551287
2.7014306165072374e-10	-0.14418405	0.19031636	0.02445497
2.7516186465766266e-10	-0.14821568	0.19138917	0.024354467
2.800187605730468e-10	-0.15212071	0.192307	0.024254868
2.8503747400239656e-10	-0.15616295	0.19313681	0.024150772
2.900560994705309e-10	-0.1602158	0.19385305	0.024046214
2.9507485384389175e-10	-0.16428219	0.19446312	0.023941495
3.000934989070821e-10	-0.16836381	0.19497441	0.023836687
3.0511212240281805e-10	-0.17246145	0.19539365	0.023731846
3.101306438550943e-10	-0.17657435	0.19572665	0.023627227
3.15149085524596e-10	-0.18070063	0.19597791	0.02352341
3.200056056262073e-10	-0.18470344	0.19614619	0.023424573
3.250240065342583e-10	-0.18884535	0.19624437	0.023325281
3.300423156421983e-10	-0.19298749	0.19626616	0.023230126
3.350606550704118e-10	-0.19712363	0.19621092	0.023140283
3.400789256483688e-10	-0.20124678	0.1960775	0.023056628
3.450970470669171e-10	-0.20534953	0.195864	0.022979593
3.50115409988921e-10	-0.20942496	0.19556828	0.022909062
3.5513337321277964e-10	-0.21346541	0.19518796	0.022844395
3.6015159512509087e-10	-0.21746506	0.19472042	0.02278445
3.6500766102359215e-10	-0.2212911	0.19418238	0.022729527
3.700258180608066e-10	-0.22519472	0.19353539	0.022674311
3.7504372416582095e-10	-0.22904412	0.19279326	0.022618962
3.800615313699907e-10	-0.23283763	0.19195373	0.02256187
3.850794560567958e-10	-0.23657514	0.19101489	0.022501716
3.9009738344387093e-10	-0.24025743	0.18997565	0.022437548
3.95113564930104e-10	-0.24388519	0.18883616	0.022368848
4.0012961695312225e-10	-0.24746235	0.18759678	0.022295464
4.0514587931411687e-10	-0.25099212	0.18625914	0.022217661
4.100000177540276e-10	-0.2543655	0.18487379	0.022138733
4.150162429913985e-10	-0.2578106	0.18335152	0.022054253
4.200325051629936e-10	-0.2612162	0.18174121	0.02196788
4.2504866593895256e-10	-0.2645836	0.18004748	0.021880835
4.3006495397428147e-10	-0.2679133	0.17827508	0.02179442
4.3508125640300484e-10	-0.27120465	0.1764289	0.021709949
4.400975711312966e-10	-0.27445585	0.1745136	0.021628704
4.45113947699532e-10	-0.27766436	0.17253342	0.021551859
4.501302863460458e-10	-0.2808268	0.17049223	0.021480422
4.5514657080140515e-10	-0.28393918	0.16839331	0.021415185
4.600011982918702e-10	-0.28689966	0.16630942	0.021358442
4.6501776095901e-10	-0.28990138	0.16410357	0.021306615
4.70034280943975e-10	-0.29284036	0.16184574	0.021261597
4.750509373282138e-10	-0.29571292	0.15953653	0.021222934
4.800675650686235e-10	-0.29851553	0.1571763	0.021189867
4.850839864281494e-10	-0.30124536	0.15476494	0.021161357
4.901005172305406e-10	-0.3039006	0.15230186	0.021136189
4.951170751223392e-10	-0.3064798	0.14978658	0.021113044
5.001337643278821e-10	-0.30898243	0.14721853	0.021090625
5.05150457246935e-10	-0.31140834	0.14459743	0.021067739
5.1000525367645e-10	-0.3136834	0.14201039	0.021044225
5.150219070735764e-10	-0.31595993	0.13928525	0.021017818
5.200385519193469e-10	-0.31816196	0.13650821	0.020988863
5.250550541999501e-10	-0.3202906	0.13368067	0.020957258
5.300718000353515e-10	-0.32234713	0.13080414	0.020923188
5.350885461817533e-10	-0.32433268	0.12788099	0.020887095
5.401052317494844e-10	-0.3262483	0.12491384	0.020849604
5.45121839728418e-10	-0.32809478	0.121905565	0.020811506
5.501386466531023e-10	-0.329873	0.11885914	0.020773672
5.551553959858893e-10	-0.33158335	0.11577801	0.020737039
5.600103223899693e-10	-0.33317417	0.112766296	0.020703606
5.650268906520352e-10	-0.33475134	0.10962662	0.020672023
5.700436270672105e-10	-0.3362605	0.106461875	0.020644264
5.750603631457705e-10	-0.33770105	0.103275254	0.020621015
5.800770667690749e-10	-0.3390719	0.1000696	0.020602796
5.850938056264951e-10	-0.34037212	0.09684748	0.02058991
5.90110412020739e-10	-0.34160012	0.0936113	0.020582424
5.951270657513301e-10	-0.3427547	0.090362936	0.02058016
6.001437758924933e-10	-0.3438343	0.087104104	0.020582674
6.051603763642677e-10	-0.3448377	0.08383632	0.020589307
6.100153785773711e-10	-0.34573504	0.08066632	0.02059886
6.150320165887247e-10	-0.34658524	0.07738399	0.020611027
6.200488159903931e-10	-0.34735668	0.074095435	0.020624522
6.250654159905288e-10	-0.348049	0.07080158	0.02063833
6.300820637059937e-10	-0.34866253	0.067502886	0.020651553
6.350988114177957e-10	-0.3491977	0.06419991	0.020663418
6.401155464300683e-10	-0.34965542	0.060893394	0.02067337
6.451322044750808e-10	-0.3500368	0.057584114	0.020681083
6.501489055637068e-10	-0.35034308	0.05427286	0.020686494
6.550037908537913e-10	-0.35056943	0.05106752	0.02068969
6.600204321382502e-10	-0.35073236	0.047755655	0.02069127
6.650370538064238e-10	-0.3508245	0.044445474	0.020691678
6.700537383460413e-10	-0.35084733	0.041138556	0.02069164
6.750703898267092e-10	-0.350802	0.037836798	0.020691963
6.800870889528954e-10	-0.35068956	0.034542162	0.020693494
6.851037629872659e-10	-0.35051072	0.03125687	0.020697048
6.901204476678048e-10	-0.35026613	0.027983166	0.020703355
6.951371437594981e-10	-0.34995607	0.024723394	0.020713015
7.00153928788646e-10	-0.34958068	0.021479819	0.02072645
7.050087819807777e-10	-0.34915528	0.018358562	0.020743262
7.100255875544396e-10	-0.3486513	0.015153486	0.020764574
7.150423449559561e-10	-0.3480818	0.011971055	0.020789705
7.200590286822594e-10	-0.3474466	0.0088130925	0.020818258
7.250757414359321e-10	-0.34674567	0.0056811436	0.02084969
7.300925186673095e-10	-0.34597903	0.0025765863	0.02088334
7.351092220280252e-10	-0.34514695	-0.0004992871	0.02091849
7.401259004785356e-10	-0.3442498	-0.0035454663	0.020954419
7.451426669450393e-10	-0.34328827	-0.0065611196	0.02099046
7.501593866345889e-10	-0.3422632	-0.0095453495	0.021026038
7.550143791212876e-10	-0.3412116	-0.012402772	0.021059627
7.600311249839823e-10	-0.34006467	-0.015323043	0.02109321
7.650478899283281e-10	-0.33885786	-0.018209692	0.021125564
7.700647510487855e-10	-0.3375925	-0.021061929	0.021156773
7.750815164725001e-10	-0.33627015	-0.02387876	0.02118709
7.800982900117626e-10	-0.33489245	-0.02665925	0.021216908
7.851150147336767e-10	-0.3334609	-0.029402286	0.021246703
7.901318485934583e-10	-0.33197683	-0.03210675	0.021277037
7.951486173407824e-10	-0.3304417	-0.03477128	0.021308476
8.000035995272286e-10	-0.3289086	-0.037310608	0.021340469
8.050204260777857e-10	-0.32727644	-0.039892633	0.02137561
8.100372926410829e-10	-0.32559645	-0.04243059	0.021413252
8.150540976708211e-10	-0.32386965	-0.04492296	0.02145365
8.200709738159175e-10	-0.3220967	-0.04736834	0.021496937
8.250877712941163e-10	-0.32027853	-0.049765225	0.021543084
8.301046291789828e-10	-0.31841567	-0.052112304	0.021591933
8.351215254036641e-10	-0.31650904	-0.054408226	0.021643206
8.401384433610098e-10	-0.31455928	-0.056651764	0.021696528
8.451554207016097e-10	-0.31256747	-0.058841743	0.021751462
8.500105268144357e-10	-0.31060073	-0.060909044	0.021805722
8.550274115616382e-10	-0.30852905	-0.0629905	0.02186248
8.600442458153448e-10	-0.30641863	-0.06501544	0.021919535
8.65061131435583e-10	-0.30427065	-0.06698307	0.021976568
8.700781061273487e-10	-0.30208665	-0.06889265	0.022033317
8.750951473582816e-10	-0.29986805	-0.07074351	0.022089673
8.80112062566136e-10	-0.2976165	-0.07253496	0.022145595
8.851290874877162e-10	-0.29533356	-0.07426657	0.02220117
8.901460511802213e-10	-0.29302076	-0.07593776	0.022256555
8.950011589610346e-10	-0.2907556	-0.07749714	0.022310186
9.000181240217406e-10	-0.28838852	-0.07904827	0.022365894
9.050351630546999e-10	-0.28599602	-0.080537826	0.022422165
9.1005234813452e-10	-0.2835794	-0.081965476	0.022479253
9.15069475550768e-10	-0.28114015	-0.08333084	0.022537358
9.200864981826862e-10	-0.27867958	-0.08463354	0.022596648
9.251035398078733e-10	-0.27619886	-0.08587327	0.022657199
9.301206908231655e-10	-0.27369925	-0.087049715	0.022719024
9.351377763345182e-10	-0.27118212	-0.08816245	0.022782061
9.401548382648846e-10	-0.26864868	-0.089211136	0.022846181
9.45010086050618e-10	-0.26618266	-0.09016465	0.022909101
9.500272092871273e-10	-0.26362097	-0.0910862	0.022974815
9.550442636344248e-10	-0.26104704	-0.0919426	0.02304101
9.600615284376679e-10	-0.25846213	-0.09273352	0.023107473
9.650785915684408e-10	-0.2558679	-0.0934586	0.02317399
9.700957803060324e-10	-0.2532657	-0.094117686	0.023240391
9.751128893090792e-10	-0.25065717	-0.09471051	0.023306534
9.801300998260653e-10	-0.24804363	-0.09523703	0.02337234
9.851472902269876e-10	-0.24542668	-0.095697194	0.023437744
9.90002577384005e-10	-0.24289231	-0.096079424	0.023500655
9.950197616936472e-10	-0.24027291	-0.09640936	0.023565281
1.000037029166052e-09	-0.23765428	-0.09667347	0.023629557
1.0050541433249406e-09	-0.23503801	-0.096872136	0.023693543
1.0100714673384373e-09	-0.2324252	-0.097005785	0.023757285
1.0150886472072164e-09	-0.22981742	-0.09707488	0.023820834
1.0201060340132855e-09	-0.22721572	-0.09708002	0.023884226
1.0251233017784157e-09	-0.22462165	-0.09702179	0.023947468
1.0301404295009419e-09	-0.22203654	-0.09690077	0.02401056
1.0351578793340342e-09	-0.21946138	-0.09671758	0.024073476
1.040013230655199e-09	-0.21698035	-0.09648168	0.024134146
1.0450305555057527e-09	-0.21442914	-0.09617788	0.02419656
1.0500478117100163e-09	-0.21189208	-0.095813654	0.024258628
1.0550652988613622e-09	-0.2093704	-0.09538946	0.024320276
1.0600825910074364e-09	-0.2068657	-0.0949059	0.024381433
1.0650999477024227e-09	-0.20437916	-0.09436342	0.024442034
1.0701172588511446e-09	-0.20191221	-0.09376256	0.02450203
1.075134723970575e-09	-0.1994661	-0.09310382	0.024561375
1.080152169440932e-09	-0.19704223	-0.092387766	0.024620034
1.085007795944101e-09	-0.19471887	-0.0916408	0.024676133
1.090025122903663e-09	-0.19234242	-0.09081381	0.02473339
1.0950426141139605e-09	-0.18999176	-0.08993143	0.024789928
1.1000601077713414e-09	-0.18766809	-0.08899445	0.024845727
1.1050775688962464e-09	-0.18537252	-0.08800376	0.024900787
1.1100948795913855e-09	-0.18310617	-0.086960316	0.02495509
1.1151124251599962e-09	-0.18086992	-0.08586499	0.025008626
1.120130040681556e-09	-0.17866479	-0.08471887	0.02506136
1.1251475454735825e-09	-0.17649187	-0.083523065	0.025113266
1.1300033320480332e-09	-0.17442049	-0.08231954	0.02516267
1.1350209597898932e-09	-0.1723136	-0.081029154	0.025212824
1.1400385218733777e-09	-0.17024168	-0.07969242	0.025262019
1.1450560779350529e-09	-0.16820574	-0.07831046	0.02531021
1.1500737915725622e-09	-0.1662066	-0.076884344	0.025357356
1.155091271085345e-09	-0.1642454	-0.0754153	0.025403425
1.1601088802577536e-09	-0.1623229	-0.07390431	0.025448391
1.1651265171576466e-09	-0.1604401	-0.072352506	0.025492236
1.1701442444798106e-09	-0.15859786	-0.07076092	0.025534956
1.175161787172637e-09	-0.15679716	-0.069130726	0.025576552
1.1800176699416312e-09	-0.15509473	-0.06751721	0.025615746
1.1850354582353768e-09	-0.15337797	-0.065813944	0.025655165
1.1900531780781453e-09	-0.1517051	-0.06407519	0.025693508
1.1950708701332547e-09	-0.15007679	-0.06230206	0.02573078
1.2000886398284803e-09	-0.1484937	-0.060495645	0.025766993
1.2051064255224716e-09	-0.14695644	-0.05865712	0.025802167
1.2101240608712886e-09	-0.14546566	-0.05678773	0.025836296
1.2151418282385068e-09	-0.14402176	-0.054888595	0.025869366
1.2201596709359063e-09	-0.14262526	-0.052960962	0.02590136
1.2250154993960655e-09	-0.1413194	-0.051069655	0.025931275
1.230033293720469e-09	-0.14001748	-0.049089745	0.02596107
1.2350511535894394e-09	-0.13876417	-0.04708517	0.025989695
1.2400689863255172e-09	-0.13755994	-0.045057256	0.026017105
1.2450869113924868e-09	-0.13640504	-0.043007284	0.026043266
1.2501047337604806e-09	-0.13529986	-0.040936653	0.02606814
1.2551226543229825e-09	-0.13424471	-0.038846582	0.026091695
1.2601404595399529e-09	-0.13323992	-0.036738478	0.026113918
1.2651583858188949e-09	-0.13228573	-0.034613535	0.026134793
1.2700144495531465e-09	-0.13141078	-0.03254236	0.026153713
1.2750325142563924e-09	-0.13055696	-0.030388067	0.026171941
1.28005048987302e-09	-0.12975453	-0.0282208	0.026188845
1.285068354048892e-09	-0.12900366	-0.026041834	0.026204456
1.2900863156255184e-09	-0.12830447	-0.023852317	0.026218794
1.2951041405277194e-09	-0.12765716	-0.021653587	0.02623189
1.3001222020087386e-09	-0.1270617	-0.019446714	0.026243782
1.3051400663339411e-09	-0.12651818	-0.017233118	0.026254488
1.3101580809806122e-09	-0.12602659	-0.015013867	0.026264038
1.3150141785936757e-09	-0.12560026	-0.012862066	0.026272187
1.3200322890976987e-09	-0.12521063	-0.010635361	0.026279498
1.3250502558422164e-09	-0.12487269	-0.008406777	0.026285669
1.3300681888429306e-09	-0.12458625	-0.0061774836	0.026290711
1.3350862636766653e-09	-0.12435108	-0.0039486354	0.026294595
1.340104337751714e-09	-0.12416695	-0.0017215176	0.026297322
1.3451222890752483e-09	-0.124033675	0.00050259393	0.026298868
1.3501402585934687e-09	-0.12395092	0.0027225406	0.02629922
1.3551581376548905e-09	-0.12391842	0.004937073	0.026298359
1.360014329296969e-09	-0.12393449	0.0070739943	0.026296362
1.3650323793660097e-09	-0.12399994	0.009274526	0.026293093
1.370050452485879e-09	-0.12411467	0.011466158	0.026288597
1.3750684689433594e-09	-0.1242783	0.013647701	0.02628288
1.3800864695137892e-09	-0.124490485	0.015818024	0.026275963
1.3851044435178805e-09	-0.12475081	0.017975999	0.026267856
1.3901225192038947e-09	-0.12505887	0.020120567	0.026258595
1.3951406460517133e-09	-0.1254142	0.02225062	0.026248207
1.4001587084068926e-09	-0.12581633	0.024365043	0.026236728
1.4050148406673736e-09	-0.1262496	0.02639538	0.026224604
1.4100328313237292e-09	-0.12674232	0.028476005	0.026211062
1.4150508826749813e-09	-0.12728028	0.030537993	0.026196523
1.4200689632834194e-09	-0.1278629	0.032580324	0.026181016
1.425086935331054e-09	-0.12848951	0.034601964	0.026164563
1.4301050019757794e-09	-0.12915953	0.03660204	0.026147183
1.4351230336433316e-09	-0.12987223	0.038579553	0.026128896
1.4401410486947252e-09	-0.13062693	0.040533587	0.026109712
1.445158987226639e-09	-0.13142289	0.042463202	0.02608964
1.4500152041120565e-09	-0.13223182	0.044306573	0.02606938
1.4550330665139605e-09	-0.13310681	0.046185575	0.026047578
1.4600510483114879e-09	-0.13402086	0.04803764	0.02602491
1.4650690814858238e-09	-0.13497318	0.049861874	0.026001377
1.4700870602964257e-09	-0.13596295	0.05165744	0.025976988
1.4751049379730227e-09	-0.13698934	0.053423487	0.02595176
1.4801228716995268e-09	-0.13805158	0.055159297	0.025925703
1.485140834831867e-09	-0.13914885	0.056864087	0.025898831
1.4901586488463295e-09	-0.14028023	0.058537062	0.025871176
1.495014751059465e-09	-0.14140691	0.06012519	0.025843684
1.50003270301212e-09	-0.14260307	0.061733603	0.02581455
1.5050504930982962e-09	-0.14383084	0.06330813	0.025784712
1.5100684097078223e-09	-0.14508937	0.06484819	0.025754197
1.5150862994125657e-09	-0.14637773	0.066353135	0.025723036
1.520104099736992e-09	-0.147695	0.06782234	0.025691269
1.5251219317069421e-09	-0.14904027	0.06925527	0.025658924
1.5301397872774117e-09	-0.15041262	0.07065139	0.025626026
1.5351575763451406e-09	-0.15181105	0.07201012	0.025592607
1.540013484782001e-09	-0.1531883	0.073289	0.0255598
1.5450313000494573e-09	-0.15463527	0.074572854	0.02552544
1.5500490527140488e-09	-0.15610541	0.07581791	0.02549063
1.555066942159751e-09	-0.15759782	0.07702386	0.025455395
1.560084790155437e-09	-0.15911144	0.07819022	0.025419759
1.5651025447306497e-09	-0.1606452	0.07931661	0.025383733
1.5701201970812064e-09	-0.16219814	0.08040267	0.02534734
1.5751380111757798e-09	-0.16376932	0.08144813	0.02531059
1.580155770656074e-09	-0.16535763	0.08245264	0.025273511
1.5850116677891233e-09	-0.16691011	0.083385475	0.025237327
1.590029317043766e-09	-0.16852926	0.08430857	0.02519964
1.5950470348020453e-09	-0.17016257	0.08518994	0.025161685
1.6000645832244537e-09	-0.17180899	0.08602931	0.025123473
1.6050823159601733e-09	-0.17346764	0.08682656	0.025085034
1.6100999812637479e-09	-0.1751374	0.08758146	0.025046391
1.615117613167074e-09	-0.17681733	0.088293895	0.02500757
1.6201351188819326e-09	-0.17850634	0.08896371	0.024968602
1.6251526795315917e-09	-0.18020356	0.08959083	0.024929509
1.6300085415986204e-09	-0.18185285	0.09015703	0.024891585
1.6350260659141328e-09	-0.18356316	0.09069995	0.024852332
1.6400436707265205e-09	-0.1852787	0.091200046	0.024813045
1.6450612026224865e-09	-0.18699838	0.09165732	0.024773743
1.650078699004944e-09	-0.18872128	0.09207178	0.024734456
1.655096157142127e-09	-0.19044639	0.0924435	0.02469521
1.6601135067475135e-09	-0.19217272	0.09277255	0.02465603
1.665130987070685e-09	-0.19389932	0.09305904	0.024616936
1.6701483973339714e-09	-0.19562523	0.0933031	0.024577951
1.6750040344770705e-09	-0.1972939	0.093499005	0.02454035
1.6800213393258754e-09	-0.19901559	0.09365999	0.024501637
1.685038819450824e-09	-0.20073383	0.09377904	0.024463093
1.690056181951593e-09	-0.20244756	0.093856335	0.02442474
1.695073389042672e-09	-0.20415586	0.09389215	0.024386588
1.700090777168873e-09	-0.20585796	0.09388668	0.024348661
1.7051080912937517e-09	-0.20755284	0.09384024	0.024310976
1.7101252664725991e-09	-0.20923959	0.09375309	0.024273552
1.7151426723269757e-09	-0.21091749	0.09362555	0.024236407
1.7201600207917366e-09	-0.21258557	0.09345795	0.024199558
1.725015228440295e-09	-0.2141896	0.09325795	0.024164202
1.730032452072633e-09	-0.21583588	0.09301255	0.024127996
1.7350496559469594e-09	-0.21746989	0.09272817	0.024092145
1.7400669532214855e-09	-0.21909083	0.09240522	0.024056675
1.745084079180132e-09	-0.22069785	0.09204416	0.024021598
1.750101352373315e-09	-0.22229023	0.09164538	0.02398694
1.7551185449123834e-09	-0.22386716	0.09120938	0.023952717
1.7601356201624424e-09	-0.2254279	0.09073665	0.023918953
1.765152721465442e-09	-0.22697169	0.09022766	0.023885664
1.7700081042128739e-09	-0.22844888	0.089701064	0.023853917
1.775025077222724e-09	-0.2299572	0.089122295	0.023821611
1.7800421856355073e-09	-0.2314465	0.088508844	0.023789832
1.7850593673607346e-09	-0.23291613	0.0878613	0.023758586
1.7900764347981886e-09	-0.23436536	0.08718024	0.023727896
1.7950934538855044e-09	-0.23579352	0.08646627	0.023697773
1.800110668499586e-09	-0.23720004	0.08571996	0.023668228
1.8051275628150886e-09	-0.23858427	0.08494201	0.02363927
1.8101447257847375e-09	-0.23994562	0.08413296	0.02361091
1.8151618143133347e-09	-0.24128355	0.083293505	0.02358316
1.8200170244560795e-09	-0.24255545	0.082452804	0.023556897
1.825034198265498e-09	-0.24384563	0.081555426	0.023530379
1.8300512259908003e-09	-0.2451107	0.08062966	0.023504492
1.8350682446164941e-09	-0.24635023	0.07967615	0.023479259
1.8400852298194183e-09	-0.2475637	0.07869562	0.023454677
1.8451021377880274e-09	-0.24875063	0.07768877	0.023430761
1.8501192458844284e-09	-0.2499106	0.07665628	0.023407517
1.8551363169629801e-09	-0.25104317	0.075598925	0.023384957
1.8601532777011006e-09	-0.25214788	0.07451743	0.023363085
1.865008482783478e-09	-0.2531901	0.07344855	0.023342581
1.8700254717282213e-09	-0.2542389	0.07232176	0.023322092
1.8750424889988057e-09	-0.25525877	0.071173035	0.023302307
1.880059502119546e-09	-0.25624934	0.07000318	0.023283241
1.885076552680047e-09	-0.25721022	0.06881295	0.023264905
1.8900935818914885e-09	-0.25814122	0.06760315	0.023247294
1.8951105989759867e-09	-0.25904197	0.06637456	0.02323042
1.900127686491071e-09	-0.2599122	0.06512793	0.023214282
1.905144630874761e-09	-0.26075163	0.06386412	0.023198882
1.910161555548524e-09	-0.2615601	0.06258391	0.023184223
1.9150166716848326e-09	-0.26231277	0.061330102	0.023170747
1.9200337259278634e-09	-0.26305965	0.060019888	0.023157552
1.925050707136462e-09	-0.26377493	0.05869566	0.023145098
1.9300677520384285e-09	-0.26445845	0.057358187	0.023133393
1.935084735309639e-09	-0.26511002	0.05600833	0.023122426
1.94010171950146e-09	-0.2657296	0.054646857	0.023112208
1.9451187637490367e-09	-0.26631704	0.053274576	0.023102732
1.9501356470967403e-09	-0.2668722	0.051892348	0.023093991
1.9551527003660293e-09	-0.26739508	0.0505009	0.023085993
1.9600078542178496e-09	-0.26787028	0.04914638	0.02307896
1.9650249271589363e-09	-0.26832938	0.047739234	0.023072414
1.9700420015792497e-09	-0.2687561	0.046325304	0.023066605
1.9750590640769432e-09	-0.26915035	0.044905394	0.02306153
1.9800761266399154e-09	-0.26951215	0.043480307	0.023057183
1.9850931910173e-09	-0.26984155	0.04205085	0.023053566
1.990110257838739e-09	-0.27013856	0.0406178	0.023050677
1.9951272612263235e-09	-0.2704033	0.03918199	0.02304851
2.000144264265696e-09	-0.27063572	0.03774418	0.023047056
2.0051613496144992e-09	-0.27083609	0.03630513	0.023046324
2.0100165512296046e-09	-0.2709994	0.0349121	0.023046292
2.015033687623363e-09	-0.2711368	0.03347293	0.023046955
2.0200506880776093e-09	-0.27124238	0.03203489	0.02304832
2.0250676782871566e-09	-0.27131632	0.030598711	0.02305038
2.0300847527446626e-09	-0.27135882	0.02916513	0.023053138
2.035101732672472e-09	-0.27137005	0.027734956	0.02305658
2.040118836586348e-09	-0.27135015	0.026308868	0.023060704
2.045136002654666e-09	-0.27129942	0.024887627	0.023065498
2.050152996096873e-09	-0.271218	0.023472035	0.023070961
2.0550082428775375e-09	-0.27111024	0.022108106	0.02307688
2.0600252465488413e-09	-0.2709692	0.020705648	0.023083638
2.0650422504201333e-09	-0.27079833	0.019310923	0.023091044
2.070059383887065e-09	-0.2705978	0.017924601	0.023099089
2.075076472373282e-09	-0.27036795	0.016547421	0.02310777
2.0800935534762124e-09	-0.2701091	0.015180061	0.023117078
2.085110635939075e-09	-0.26982155	0.01382319	0.023127003
2.0901277283937217e-09	-0.26950565	0.0124774715	0.023137536
2.0951448973151957e-09	-0.26916173	0.011143547	0.023148673
2.100000167439836e-09	-0.26880258	0.009864522	0.023160014
2.105017260315782e-09	-0.2684046	0.008555738	0.023172311
2.1100343865501017e-09	-0.26797968	0.007260647	0.02318519
2.1150514144253666e-09	-0.26752824	0.005979894	0.02319863
2.1200684687400423e-09	-0.2670507	0.0047140527	0.023212636
2.125085578417424e-09	-0.2665474	0.0034637067	0.02322719
2.1301026773912654e-09	-0.2660189	0.0022294552	0.023242287
2.135119717461023e-09	-0.26546553	0.0010118801	0.023257913
2.1401367942807386e-09	-0.26488772	-0.00018848495	0.023274062
2.1451538825881316e-09	-0.264286	-0.001371089	0.02329072
2.1500091286088296e-09	-0.26368135	-0.0024981268	0.02330732
2.1550262809236403e-09	-0.2630339	-0.0036442468	0.023324952
2.160043493976846e-09	-0.26236388	-0.004771068	0.023343064
2.1650607017753726e-09	-0.2616718	-0.0058780885	0.023361648
2.17007776643456e-09	-0.26095825	-0.006964792	0.023380686
2.17509486418801e-09	-0.26022363	-0.008030751	0.02340017
2.1801120061956957e-09	-0.2594685	-0.009075515	0.023420088
2.185129089181741e-09	-0.2586934	-0.010098619	0.023440428
2.1901462464976246e-09	-0.25789884	-0.01109967	0.023461176
2.1950015992781204e-09	-0.25711188	-0.0120470375	0.023481634
2.200018785961514e-09	-0.25628057	-0.013003482	0.023503155
2.205036010675714e-09	-0.2554315	-0.013936687	0.023525046
2.210053146595506e-09	-0.25456512	-0.01484626	0.023547295
2.215070408032899e-09	-0.253682	-0.01573189	0.023569895
2.2200876227729932e-09	-0.25278276	-0.016593209	0.02359283
2.225104743730073e-09	-0.25186798	-0.017429888	0.023616081
2.2301219545697634e-09	-0.2509382	-0.018241648	0.023639644
2.235139249783212e-09	-0.24999398	-0.019028196	0.023663497
2.240156419682525e-09	-0.24903603	-0.019789224	0.023687633
2.2450117459776076e-09	-0.24809639	-0.02050118	0.023711242
2.250028947737034e-09	-0.24711297	-0.02121129	0.023735885
2.255046122629798e-09	-0.24611753	-0.021895168	0.023760766
2.260063352407327e-09	-0.24511069	-0.02255261	0.023785874
2.265080625786465e-09	-0.24409297	-0.023183415	0.023811191
2.270097904126462e-09	-0.24306506	-0.023787398	0.023836702
2.27511514389553e-09	-0.24202754	-0.024364384	0.023862395
2.2801323540359623e-09	-0.24098106	-0.024914222	0.023888256
2.2851495842405016e-09	-0.2399262	-0.025436781	0.023914272
2.2900049557390536e-09	-0.238898	-0.025916401	0.02393958
2.2950221894945495e-09	-0.2378285	-0.026384946	0.023965852
2.3000395210698868e-09	-0.2367524	-0.026825918	0.023992233
2.3050567153501363e-09	-0.23567045	-0.027239218	0.024018709
2.3100740256947106e-09	-0.23458317	-0.027624812	0.024045264
2.3150913338514663e-09	-0.23349121	-0.027982641	0.024071887
2.320108682717455e-09	-0.23239517	-0.028312692	0.02409856
2.325126009025206e-09	-0.23129566	-0.028614953	0.024125269
2.3301433070971896e-09	-0.23019336	-0.02888942	0.024152001
2.335160623733081e-09	-0.22908883	-0.029136123	0.02417874
2.3400161307047578e-09	-0.22801836	-0.029348467	0.024204606
2.345033520869118e-09	-0.22691125	-0.029540654	0.024231317
2.350050825737364e-09	-0.22580369	-0.029705225	0.024257988
2.3550682133436414e-09	-0.22469631	-0.02984227	0.024284609
2.3600855280003207e-09	-0.22358975	-0.029951874	0.024311166
2.3651027215080613e-09	-0.22248459	-0.03003415	0.024337646
2.370120103893871e-09	-0.22138137	-0.03008923	0.024364034
2.37513745301841e-09	-0.22028074	-0.030117244	0.024390317
2.3801547920130693e-09	-0.21918322	-0.030118344	0.024416476
2.3850103879121156e-09	-0.21812469	-0.030093953	0.024441672
2.390027780370399e-09	-0.21703503	-0.030042607	0.024467558
2.395045182303616e-09	-0.21595028	-0.02996489	0.024493288
2.400062564130399e-09	-0.21487091	-0.029861009	0.024518842
2.4050799443021278e-09	-0.21379755	-0.029731182	0.024544213
2.4100973164160624e-09	-0.21273069	-0.02957564	0.024569385
2.4151146341087886e-09	-0.21167094	-0.029394645	0.024594342
2.420132033528343e-09	-0.21061873	-0.029188443	0.024619082
2.425149426183522e-09	-0.20957471	-0.028957307	0.024643583
2.4300050390942606e-09	-0.20857255	-0.028710157	0.024667064
2.4350223926974122e-09	-0.20754606	-0.028430803	0.02469107
2.4400399325392212e-09	-0.20652919	-0.02812739	0.024714801
2.445057311204396e-09	-0.2055225	-0.027800243	0.024738258
2.450074718356196e-09	-0.20452648	-0.027449697	0.024761418
2.455092181390577e-09	-0.2035416	-0.027076077	0.024784273
2.460109576180459e-09	-0.20256832	-0.026679754	0.024806816
2.465127058967457e-09	-0.20160715	-0.026261061	0.024829028
2.470144523457417e-09	-0.20065847	-0.025820391	0.02485091
2.4750001195558656e-09	-0.1997528	-0.02537337	0.024871757
2.480017743498522e-09	-0.19883008	-0.024890551	0.024892952
2.485035181493558e-09	-0.19792125	-0.024386931	0.024913779
2.4900526397265265e-09	-0.19702666	-0.023862895	0.02493423
2.495070137182284e-09	-0.19614671	-0.023318864	0.024954304
2.5000876211545547e-09	-0.19528183	-0.022755256	0.024973985
2.505105217282237e-09	-0.19443238	-0.022172503	0.024993269
2.5101227416439394e-09	-0.19359879	-0.02157107	0.025012143
2.5151402855696884e-09	-0.19278137	-0.020951377	0.025030605
2.5201577999587256e-09	-0.19198047	-0.020313904	0.025048643
2.5250134776451987e-09	-0.19122146	-0.01968049	0.025065694
2.5300309295515465e-09	-0.19045414	-0.019009378	0.025082879
2.535048519454205e-09	-0.1897043	-0.018321855	0.025099618
2.5400660445425095e-09	-0.18897226	-0.017618423	0.025115913
2.5450835644605497e-09	-0.1882584	-0.016899569	0.02513175
2.5501011423807067e-09	-0.18756294	-0.016165774	0.025147127
2.5551188984146383e-09	-0.18688613	-0.015417518	0.025162036
2.5601364089486362e-09	-0.18622828	-0.014655365	0.025176475
2.5651540212642514e-09	-0.18558964	-0.013879771	0.025190432
2.5700097413001745e-09	-0.18499012	-0.013116898	0.025203481
2.575027301567399e-09	-0.1843899	-0.012316393	0.02521649
2.5800448783236977e-09	-0.1838096	-0.011503985	0.025229003